
 Primary working directories    : /scratch/qiyu
 Secondary working directories  : /scratch/qiyu
 Wavefunction directory         : /home/qiyu/wfu/
 Main file repository           : /scratch/qiyu/

 SHA1      : 41aa48e1468dac041f2eaabdf410f3ce2ee7f8bf
 NAME      : 2015.1.0
 ARCHNAME  : linux/x86_64
 FC        : /opt/intel/composer_xe_2015.1.133/bin/intel64/ifort
 BLASLIB   : -Wl,-_start-group /opt/intel/mkl/lib/intel64/libmkl_intel_ilp64.a /opt/intel/mkl/lib/intel64/libmkl_sequential.a /opt/intel/mkl/lib/intel64/libmkl_core.a -Wl,-_end-group
 id        : emory

 Nodes     nprocs
 node8       16

 Using customized tuning parameters: mindgm=1; mindgv=20; mindgc=4; mindgr=1; noblas=0; minvec=7
 default implementation of scratch files=sf  

  *** PES, using cartesian coor
  memory,400,m;
  basis=avtz;
  nosym
  geomtyp=xyz
 geometry={
 H     -0.53403152     0.00000147    -0.09468640
 H     -1.82793974     0.00000992    -0.89600911
 H      1.74156250     0.75973396     0.49011953
 H      1.74156060    -0.75974667     0.49010656
 O     -1.49330679     0.00000186     0.00057882
 O      1.42266404    -0.00000177     0.00008085
 }
 wf,20,1,0
  int;
  hf
  mp2
  optg
  frequencies

 Variables initialized (889), CPU time= 0.09 sec
 Commands  initialized (702), CPU time= 0.05 sec, 572 directives.
 Default parameters read. Elapsed time= 0.44 sec

 Checking input...
 Passed
1


                                         ***  PROGRAM SYSTEM MOLPRO  ***
                                       Copyright, TTI GmbH Stuttgart, 2015
                                    Version 2015.1 linked Nov 13 2015 17:13:29


 **********************************************************************************************************************************
 LABEL *                                                                                 
  64 bit mpp version                                                                     DATE: 26-Dec-22          TIME: 00:40:02  
 **********************************************************************************************************************************

 SHA1:             41aa48e1468dac041f2eaabdf410f3ce2ee7f8bf
 **********************************************************************************************************************************

 Variable memory set to  400000000 words,  buffer space   230000 words

 SETTING BASIS          =    AVTZ
 SETTING GEOMTYP        =    XYZ
 ZSYMEL=NOSYM
 


 Using spherical harmonics

 Library entry H      S aug-cc-pVTZ          selected for orbital group  1
 Library entry H      P aug-cc-pVTZ          selected for orbital group  1
 Library entry H      D aug-cc-pVTZ          selected for orbital group  1
 Library entry O      S aug-cc-pVTZ          selected for orbital group  2
 Library entry O      P aug-cc-pVTZ          selected for orbital group  2
 Library entry O      D aug-cc-pVTZ          selected for orbital group  2
 Library entry O      F aug-cc-pVTZ          selected for orbital group  2

1PROGRAM * SEWARD (Integral evaluation for generally contracted gaussian basis sets)     Author: Roland Lindh, 1990

 Geometry written to block  1 of record 700


 Point group  C1  



 ATOMIC COORDINATES

 NR  ATOM    CHARGE       X              Y              Z

   1  H       1.00   -1.009173315    0.000002778   -0.178931364
   2  H       1.00   -3.454305481    0.000018746   -1.693211823
   3  H       1.00    3.291076154    1.435689112    0.926191680
   4  H       1.00    3.291072563   -1.435713130    0.926167170
   5  O       8.00   -2.821940853    0.000003515    0.001093811
   6  O       8.00    2.688445403   -0.000003345    0.000152784

 Bond lengths in Bohr (Angstrom)

 1-5  1.821684718  2-5  1.808468027  3-6  1.811608315  4-6  1.811608326
     ( 0.963994038)     ( 0.957000067)     ( 0.958661836)     ( 0.958661841)

 Bond angles

  1-5-2  104.79562771   3-6-4  104.83967439

 NUCLEAR CHARGE:                   20
 NUMBER OF PRIMITIVE AOS:         242
 NUMBER OF SYMMETRY AOS:          216
 NUMBER OF CONTRACTIONS:          184   ( 184A   )
 NUMBER OF CORE ORBITALS:           2   (   2A   )
 NUMBER OF VALENCE ORBITALS:       12   (  12A   )


 NUCLEAR REPULSION ENERGY   36.59456842


 Eigenvalues of metric

         1 0.223E-03 0.269E-03 0.338E-03 0.346E-03 0.615E-03 0.102E-02 0.118E-02 0.142E-02


 Contracted 2-electron integrals neglected if value below      1.0D-11
 AO integral compression algorithm  1   Integral accuracy      1.0D-11

     573.047 MB (compressed) written to integral file ( 41.3%)

     Node minimum: 23.855 MB, node maximum: 58.720 MB


 NUMBER OF SORTED TWO-ELECTRON INTEGRALS:    9048256.     BUFFER LENGTH:  32768
 NUMBER OF SEGMENTS:   1  SEGMENT LENGTH:    9048256      RECORD LENGTH: 524288

 Memory used in sort:       9.61 MW

 SORT1 READ   173478244. AND WROTE     7954042. INTEGRALS IN     23 RECORDS. CPU TIME:     2.92 SEC, REAL TIME:     3.60 SEC
 SORT2 READ   127966414. AND WROTE   144848710. INTEGRALS IN   2208 RECORDS. CPU TIME:     0.20 SEC, REAL TIME:     0.38 SEC

 Node minimum:     9045067.  Node maximum:     9061024. integrals

 OPERATOR DM      FOR CENTER  0  COORDINATES:    0.000000    0.000000    0.000000


 **********************************************************************************************************************************
 DATASETS  * FILE   NREC   LENGTH (MB)   RECORD NAMES
              1      18       17.74       500      610      700      900      950      970     1000      129      960     1100   
                                          VAR    BASINP    GEOM    SYMINP    ZMAT    AOBASIS   BASIS     P2S    ABASIS      S 
                                         1400     1410     1200     1210     1080     1600     1650     1700   
                                           T        V       H0       H01     AOSYM     SMH    MOLCAS    OPER   

 PROGRAMS   *        TOTAL       INT
 CPU TIMES  *         4.55      4.03
 REAL TIME  *         6.05 SEC
 DISK USED  *         2.08 GB      
 GA USED    *         0.00 MB       (max)       0.00 MB       (current)
 **********************************************************************************************************************************

1PROGRAM * RHF-SCF (CLOSED SHELL)       Authors: W. Meyer, H.-J. Werner


 NUMBER OF ELECTRONS:      10+   10-    SPACE SYMMETRY=1    SPIN SYMMETRY: Singlet 
 CONVERGENCE THRESHOLDS:    1.00E-06 (Density)    1.00E-07 (Energy)
 MAX. NUMBER OF ITERATIONS:       60
 INTERPOLATION TYPE:            DIIS
 INTERPOLATION STEPS:              2 (START)      1 (STEP)
 LEVEL SHIFTS:                  0.00 (CLOSED)  0.00 (OPEN) 



 Orbital guess generated from atomic densities. Full valence occupancy:   14

 Molecular orbital dump at record        2100.2

 Initial occupancy:  10

 ITERATION    DDIFF          GRAD             ENERGY        2-EL.EN.            DIPOLE MOMENTS         DIIS   ORB.
    1      0.000D+00      0.000D+00      -152.05808602    191.569063    1.37546   -0.00000   -0.00502    0    start
    2      0.000D+00      0.697D-02      -152.10832934    184.923752    1.00473   -0.00000    0.04445    1    diag
    3      0.761D-02      0.417D-02      -152.12635804    187.783890    1.07272   -0.00000    0.01830    2    diag
    4      0.260D-02      0.423D-03      -152.12673293    187.608670    1.06002   -0.00000    0.01924    3    diag
    5      0.375D-03      0.107D-03      -152.12676579    187.628307    1.05587   -0.00000    0.01773    4    diag
    6      0.105D-03      0.242D-04      -152.12676784    187.628419    1.05491   -0.00000    0.01828    5    diag
    7      0.285D-04      0.107D-04      -152.12676805    187.627469    1.05472   -0.00000    0.01788    6    diag
    8      0.881D-05      0.257D-05      -152.12676808    187.627708    1.05460   -0.00000    0.01792    7    diag
    9      0.378D-05      0.422D-06      -152.12676808    187.627686    1.05458   -0.00000    0.01792    8    diag
   10      0.590D-06      0.681D-07      -152.12676808    187.627676    1.05458   -0.00000    0.01792    0    orth

 Final occupancy:  10

 !RHF STATE 1.1 Energy               -152.126768080317
 Nuclear energy                        36.59456842
 One-electron energy                 -282.53517430
 Two-electron energy                   93.81383780
 Virial quotient                       -1.00132390
 !RHF STATE 1.1 Dipole moment           1.05457640    -0.00000148     0.01791890
 Dipole moment /Debye                   2.68029030    -0.00000376     0.04554231

 Orbital energies:

         1.1          2.1          3.1          4.1          5.1          6.1          7.1          8.1          9.1         10.1
    -20.591493   -20.535897    -1.379792    -1.322940    -0.742747    -0.695495    -0.613722    -0.558883    -0.531133    -0.481647

        11.1         12.1
      0.023046     0.045622

 HOMO     10.1    -0.481647 =     -13.1063eV
 LUMO     11.1     0.023046 =       0.6271eV
 LUMO-HOMO         0.504693 =      13.7334eV


 **********************************************************************************************************************************
 DATASETS  * FILE   NREC   LENGTH (MB)   RECORD NAMES
              1      18       17.74       500      610      700      900      950      970     1000      129      960     1100   
                                          VAR    BASINP    GEOM    SYMINP    ZMAT    AOBASIS   BASIS     P2S    ABASIS      S 
                                         1400     1410     1200     1210     1080     1600     1650     1700   
                                           T        V       H0       H01     AOSYM     SMH    MOLCAS    OPER   

              2       4        1.15       700     1000      520     2100   
                                         GEOM     BASIS   MCVARS     RHF  

 PROGRAMS   *        TOTAL        HF       INT
 CPU TIMES  *         5.68      1.13      4.03
 REAL TIME  *         7.30 SEC
 DISK USED  *         2.42 GB      
 SF USED    *         0.14 MB      
 GA USED    *         0.00 MB       (max)       0.00 MB       (current)
 **********************************************************************************************************************************


1PROGRAM * MP2 (Closed-shell)     Authors: C. Hampel, H.-J. Werner, 1991, M. Deegan, P.J. Knowles, 1992


 Convergence thresholds:  THRVAR = 1.00D-12  THRDEN = 1.00D-08

 Number of core orbitals:           2 (   2 )
 Number of closed-shell orbitals:   8 (   8 )
 Number of external orbitals:     174 ( 174 )

 Molecular orbitals read from record     2100.2  Type=RHF/CANONICAL (state 1.1)

 Number of N-1 electron functions:               8
 Number of N-2 electron functions:              36
 Number of singly external CSFs:              1392
 Number of doubly external CSFs:            969528
 Total number of CSFs:                      970921

 Length of J-op  integral file:               0.00 MB
 Length of K-op  integral file:               2.34 MB

 Integral transformation finished. Total CPU:   0.82 sec, npass=  1  Memory used:   2.80 MW

 Memory needed for MP2:                      0.17 MW

 SCS-MP2 correlation energy:           -0.533199301498   (PS=  1.200000  PT=  0.333333)
 SCS-MP2 total energy:               -152.659967381815


  Reference energy                   -152.126768080317
  MP2 singlet pair energy              -0.341934907350
  MP2 triplet pair energy              -0.197481556090
  MP2 correlation energy               -0.539416463440

 !MP2 total energy                   -152.666184543757

 KEXT needed  1 integral passes. Memory used:   2.76 MW  CPU time:      0.65 sec


 Starting Coupled-perturbed Hartree-Fock, convergence threshold= 1.0D-06

 ITER   MIC  DIIS      VAR         VARC       CPU
   1     0     1    0.43D-01    0.15D-02     0.09
   2     5     2    0.73D-03    0.13D-03     0.21
   3     4     3    0.18D-04    0.15D-05     0.31
   4     3     4    0.13D-05    0.17D-06     0.41
   5     1     5    0.12D-06    0.32D-08     0.50

 CPHF convergence reached in  5 macroiterations and   13 microiterations.   Accuracy: 1.1535D-07

 CPHF solution written to record  4101.2

 Dipole moments (unrelaxed):            1.04135445    -0.00000147     0.01871186
 Orbital relaxation contribution:      -0.02717795     0.00000002     0.00140672
 !!MP2 STATE 1.1 Dipole moment          1.01417650    -0.00000145     0.02011858
 Dipole moment /Debye                   2.57761072    -0.00000368     0.05113297
 
 CPU-time for density and lagrangian:                  0.13 sec
 CPU-time for coupled-perturbed hartree-fock:          0.50 sec

 MP2 Gradient info saved on record         5200.1


 **********************************************************************************************************************************
 DATASETS  * FILE   NREC   LENGTH (MB)   RECORD NAMES
              1      20       42.58       500      610      700      900      950      970     1000      129      960     1100   
                                          VAR    BASINP    GEOM    SYMINP    ZMAT    AOBASIS   BASIS     P2S    ABASIS      S 
                                         1400     1410     1200     1210     1080     1600     1650     1700     1380     5200   
                                           T        V       H0       H01     AOSYM     SMH    MOLCAS    OPER     JKOP      MP2  

              2       6        2.38       700     1000      520     2100     4100     4101   
                                         GEOM     BASIS   MCVARS     RHF     CPHF     CPHF   

 PROGRAMS   *        TOTAL       MP2        HF       INT
 CPU TIMES  *         8.02      2.34      1.13      4.03
 REAL TIME  *        10.10 SEC
 DISK USED  *         2.80 GB      
 SF USED    *        63.51 MB      
 GA USED    *         0.00 MB       (max)       0.00 MB       (current)
 **********************************************************************************************************************************


 PROGRAM * OPT (Geometry optimization)     Authors: F. Eckert and H.-J. Werner


 BFGS update of hessian

 *** Long output written to logfile /home/qiyu/h3o+/mb-2/molpro/opt/dimer_mp2.log ***


 Geometry optimization using default procedure for command MP2

 Geometry written to block  1 of record 700

 Making model hessian for cartesian coordinates

 Entering Rational Function Geometry Optimization

 ITER.   ENERGY(OLD)    ENERGY(NEW)      DE          GRADMAX     GRADNORM    GRADRMS     STEPMAX     STEPLEN     STEPRMS   CPU-time
   1  -152.66618454  -152.66623459    -0.00005005  0.00835481  0.01000312  0.00083359  0.00898692  0.01314205  0.00536522     11.26
   2  -152.66623459  -152.66623934    -0.00000474  0.00237209  0.00295490  0.00024624  0.03655454  0.04068098  0.01660794     22.80
   3  -152.66623934  -152.66624025    -0.00000092  0.00042921  0.00049481  0.00004123  0.03364852  0.03440877  0.01404732     34.93
   4  -152.66624025  -152.66624092    -0.00000067  0.00044037  0.00057429  0.00004786  0.01039535  0.01156078  0.00471967     46.31
   5  -152.66624092  -152.66624094    -0.00000002  0.00007525  0.00009054  0.00000754  0.00043420  0.00050748  0.00020718     58.11

 END OF GEOMETRY OPTIMIZATION.

 Current geometry (xyz format, in Angstrom)

    6
 MP2/AVTZ  ENERGY=-152.66624094
 H         -0.5285503293        0.0000017351       -0.0917178327
 H         -1.8228199227        0.0000099012       -0.8984006625
 H          1.7398449230        0.7610383613        0.4892829867
 H          1.7398431406       -0.7610511113        0.4892700280
 O         -1.4924514065        0.0000016978        0.0034022413
 O          1.4146426849       -0.0000018141       -0.0016465107

 **********************************************************************************************************************************

 Geometry written to block  1 of record 700


 **********************************************************************************************************************************
 DATASETS  * FILE   NREC   LENGTH (MB)   RECORD NAMES
              1      20       42.58       500      610      700      900      950      970     1000      129      960     1100   
                                          VAR    BASINP    GEOM    SYMINP    ZMAT    AOBASIS   BASIS     P2S    ABASIS      S 
                                         1400     1410     1200     1210     1080     1600     1650     1700     1380     5200   
                                           T        V       H0       H01     AOSYM     SMH    MOLCAS    OPER     JKOP      MP2  

              2       7        2.52       700     1000      520     2100     4100     4101     9001   
                                         GEOM     BASIS   MCVARS     RHF     CPHF     CPHF    DEN_MP2    

 PROGRAMS   *        TOTAL      OPTG       MP2        HF       INT
 CPU TIMES  *        66.15     58.12      2.34      1.13      4.03
 REAL TIME  *        77.88 SEC
 DISK USED  *         2.96 GB      
 SF USED    *        64.57 MB      
 GA USED    *         0.00 MB       (max)       0.00 MB       (current)
 **********************************************************************************************************************************


 PROGRAM * HESSIAN

 Computing numerical hessian using default procedure for command MP2

 Using no symmetry in wavefunction calculations

 Running default procedure: HF-SCF000  MP2
 

 Numerically approximating hessian using central gradient differences

 Task list generated. Total number of displacements:     36

    5 tasks completed, CPU=1m 6s Elapsed=1m 7s
   10 tasks completed, CPU=2m 17s Elapsed=2m 18s
   15 tasks completed, CPU=3m 31s Elapsed=3m 32s
   20 tasks completed, CPU=4m 43s Elapsed=4m 45s
   25 tasks completed, CPU=5m 56s Elapsed=5m 58s
   30 tasks completed, CPU=7m 12s Elapsed=7m 15s
   35 tasks completed, CPU=8m 30s Elapsed=8m 33s

 Numerical MP2 hessian completed. CPU-time:   526.00 sec, Elapsed:   528.86 sec

 MP2 hessian saved to record  5300.2

 FREQUENCIES * CALCULATION OF HARMONIC VIBRATIONAL SPECTRA FOR MP2


 Permanent Dipole Moment [debye]
   1-  3    2.620710   -0.000003    0.048643

 Dipole Moment Norm    2.6211616 [debye]

 Dipole Moment Derivatives [debye/ang]
                   1             2             3             4             5             6             7             8
         1     2.8951343    -0.0000056     0.3777652     1.3699688    -0.0000003     0.0394694     1.4001689    -0.0669386
         2    -0.0000070     1.2628486     0.0000022    -0.0000005     1.5246220     0.0000079     0.0014702     1.3571777
         3     0.4989220     0.0000020     0.9809294     0.0618775     0.0000077     0.6344670    -0.2498688    -0.1913920
                   9            10            11            12            13            14            15            16
         1    -0.3096138     1.4001689     0.0669438    -0.3096124    -3.5056945     0.0000032    -0.3037710    -3.5597079
         2    -0.1398663    -0.0014661     1.3571722     0.1398706     0.0000046    -3.1403934    -0.0000108    -0.0000019
         3     1.1435647    -0.2498685     0.1913961     1.1435704    -0.4484821    -0.0000107    -1.8883309     0.3872364
                  17            18
         1    -0.0000024     0.5055226
         2    -2.3613059    -0.0000035
         3    -0.0000033    -2.0143224

 Projecting out rotations and translations

   Low Vibration      Wavenumber
        Nr             [1/cm] 
        1                0.00
        2                0.00
        3                0.00
        4                0.00
        5                0.00
        6                0.00

     Vibration        Wavenumber
        Nr             [1/cm] 
        1              127.03
        2              146.51
        3              154.57
        4              183.91
        5              360.20
        6              630.42
        7             1628.97
        8             1650.12
        9             3718.77
       10             3813.74
       11             3915.11
       12             3935.09

 FREQUENCIES * CALCULATION OF NORMAL MODES FOR MP2


 Atomic Coordinates

  Nr  Atom  Charge       X              Y              Z

   1   H     1.00   -0.998815366    0.000003279   -0.173321585
   2   H     1.00   -3.444630428    0.000018711   -1.697731202
   3   H     1.00    3.287830404    1.438154073    0.924610842
   4   H     1.00    3.287827035   -1.438178167    0.924586354
   5   O     8.00   -2.820324412    0.000003208    0.006429304
   6   O     8.00    2.673287239   -0.000003428   -0.003111454

 Frequencies dumped to record   5400.2

 Gradient norm at reference geometry: 0.90537D-04
 
 Molecule is not in standard orientation!
 Symmetry information for normal modes not available!

 Normal Modes

                              1 A         2 A         3 A         4 A         5 A  
 Wavenumbers [cm-1]          127.03      146.51      154.57      183.91      360.20
 Intensities [km/mol]        103.24       65.40      131.34      149.49       51.46
 Intensities [relative]       34.78       22.03       44.25       50.36       17.34
           GX1             -0.00000    -0.00000     0.10171    -0.13390     0.02324
           GY1              0.20036    -0.30544     0.00000     0.00000    -0.00000
           GZ1              0.00000    -0.00000    -0.26133    -0.22529     0.56600
           GX2             -0.00000     0.00000    -0.14988    -0.33437     0.57892
           GY2              0.59100     0.53159    -0.00000    -0.00000     0.00000
           GZ2              0.00001     0.00000     0.11512     0.08573    -0.21639
           GX3              0.39739    -0.46446    -0.45934    -0.19227    -0.27799
           GY3              0.04940     0.24722    -0.00164    -0.00411    -0.00341
           GZ3             -0.33146    -0.13594     0.23200     0.22125     0.16209
           GX4             -0.39739     0.46446    -0.45934    -0.19227    -0.27800
           GY4              0.04939     0.24721     0.00163     0.00411     0.00341
           GZ4              0.33147     0.13594     0.23200     0.22125     0.16209
           GX5             -0.00000     0.00000     0.12744    -0.11069    -0.03465
           GY5             -0.06231    -0.00563    -0.00000     0.00000    -0.00000
           GZ5             -0.00000    -0.00000     0.01304     0.00411     0.01090
           GX6              0.00000    -0.00000    -0.06653     0.16442     0.03175
           GY6              0.00623    -0.03977     0.00000    -0.00000     0.00000
           GZ6              0.00000    -0.00000    -0.03306    -0.02320    -0.05335

                              6 A         7 A         8 A         9 A        10 A  
 Wavenumbers [cm-1]          630.42     1628.97     1650.12     3718.77     3813.74
 Intensities [km/mol]         91.47       87.34       36.40      296.83       11.13
 Intensities [relative]       30.82       29.43       12.26      100.00        3.75
           GX1              0.00000     0.01231     0.06724     0.91568    -0.08023
           GY1              0.90846    -0.00000    -0.00001    -0.00000     0.00000
           GZ1              0.00001     0.16417     0.69915    -0.05431     0.00080
           GX2              0.00000    -0.14006    -0.57666    -0.13948     0.02328
           GY2             -0.02276    -0.00000    -0.00000     0.00000    -0.00000
           GZ2             -0.00000     0.05340     0.21848    -0.27721     0.05068
           GX3             -0.24816     0.29515    -0.08145     0.02275     0.21387
           GY3              0.06869    -0.39889     0.09673     0.05316     0.56961
           GZ3              0.00251     0.43345    -0.09655     0.03230     0.31990
           GX4              0.24816     0.29515    -0.08145     0.02275     0.21386
           GY4              0.06869     0.39888    -0.09673    -0.05316    -0.56962
           GZ4             -0.00251     0.43346    -0.09655     0.03230     0.31990
           GX5              0.00000     0.00861     0.03117    -0.04915     0.00352
           GY5             -0.02751     0.00000     0.00000    -0.00000     0.00000
           GZ5             -0.00000    -0.01354    -0.05553     0.02087    -0.00334
           GX6             -0.00000    -0.03775     0.01119    -0.00261    -0.02688
           GY6             -0.03695     0.00000    -0.00000     0.00000     0.00000
           GZ6             -0.00000    -0.05478     0.00988    -0.00405    -0.04021

                             11 A        12 A  
 Wavenumbers [cm-1]         3915.11     3935.09
 Intensities [km/mol]        115.04       97.33
 Intensities [relative]       38.75       32.79
           GX1              0.29304    -0.00000
           GY1              0.00000    -0.00074
           GZ1             -0.05244     0.00000
           GX2              0.33546    -0.00000
           GY2             -0.00001     0.00010
           GZ2              0.85138    -0.00000
           GX3             -0.00540     0.23027
           GY3             -0.01663     0.53604
           GZ3             -0.00865     0.34577
           GX4             -0.00540    -0.23027
           GY4              0.01663     0.53604
           GZ4             -0.00865    -0.34576
           GX5             -0.03973     0.00000
           GY5              0.00000    -0.00002
           GZ5             -0.05037     0.00000
           GX6              0.00081    -0.00000
           GY6             -0.00000    -0.06748
           GZ6              0.00113    -0.00000


 Normal Modes of low/zero frequencies

                                  1           2           3           4           5
 Wavenumbers [cm-1]            0.00        0.00        0.00        0.00        0.00
 Intensities [km/mol]          0.00        0.00        0.00        0.00        0.00
 Intensities [relative]        0.00        0.00        0.00        0.00        0.00
           GX1             -0.00724     0.00421     0.01115     0.00159     0.03804
           GY1              0.07657    -0.03100     0.15778    -0.00454    -0.04037
           GZ1             -0.00687     0.13154     0.04117     0.10345     0.03382
           GX2             -0.00090    -0.07097     0.00344     0.03692     0.07368
           GY2              0.52189    -0.02349     0.09204     0.12062    -0.24176
           GZ2             -0.01703     0.25216     0.05353     0.04677    -0.02336
           GX3             -0.04513     0.03934     0.03935     0.01292    -0.05333
           GY3             -0.18565    -0.00303     0.16537    -0.15924     0.22003
           GZ3              0.48453    -0.04225    -0.07886     0.26187     0.04945
           GX4              0.02152     0.07737    -0.00594    -0.06062     0.07807
           GY4             -0.18564    -0.00303     0.16537    -0.15924     0.22002
           GZ4             -0.46264    -0.11745     0.11783     0.14372     0.21862
           GX5             -0.00799     0.01307     0.01206    -0.00257     0.03384
           GY5             -0.02482    -0.05979     0.19874     0.03466    -0.11301
           GZ5             -0.01444     0.22137     0.05038     0.06124    -0.00877
           GX6             -0.00795     0.01260     0.01201    -0.00235     0.03406
           GY6              0.10561     0.01310     0.11160    -0.10542     0.13739
           GZ6              0.00839    -0.04955     0.02259     0.18855     0.11967

                                  6
 Wavenumbers [cm-1]            0.00
 Intensities [km/mol]          0.00
 Intensities [relative]        0.00
           GX1              0.16192
           GY1              0.00289
           GZ1             -0.01933
           GX2              0.16180
           GY2              0.07321
           GZ2             -0.01914
           GX3              0.17452
           GY3             -0.06973
           GZ3              0.02660
           GX4              0.14949
           GY4             -0.06973
           GZ4             -0.06591
           GX5              0.16193
           GY5              0.01296
           GZ5             -0.01919
           GX6              0.16193
           GY6             -0.03454
           GZ6             -0.01961


 Zero point energy:  0.04616580 [H]    10132.22 [1/CM]      121.21 [KJ/MOL]
 Frequency information read from record  5400.2

 MP2/aug-cc-pVTZ energy=   -152.666240936045

       OPTG(MP2)        MP2             HF-SCF  
   -152.66624094   -152.66618454   -152.12676808
 **********************************************************************************************************************************
 Variable memory released
